# vtk DataFile Version 3.0
vtk output
ASCII
DATASET POLYDATA
POINTS 4 float
0 0 0 1 0 0 0 1 0 
0 0 1 
POLYGONS 4 16
3 0 1 3 
3 1 2 3 
3 0 2 3 
3 0 1 2 

CELL_DATA 4
POINT_DATA 4
SCALARS scalars float
LOOKUP_TABLE default
0 1 2 3 
