# vtk DataFile Version 3.0
vtk output
ASCII
DATASET POLYDATA
POINTS 4354 float
-0.167038 -0.0865624 0.982143 -0.845073 0.506056 0.172505 0.199719 0.163035 -0.966195 
0.9116 -0.154135 0.381087 -0.547854 0.293385 0.783442 -0.494567 0.631204 -0.597482 
0.831789 -0.284567 -0.476602 0.367727 -0.343798 0.864048 -0.322391 -0.12549 0.938252 
-0.34337 0.168714 0.923923 -0.377878 0.366299 0.850314 -0.83481 0.0126063 0.550394 
-0.94454 -0.0820621 0.317978 -0.931957 0.229981 0.280292 -0.944259 0.290881 -0.154155 
-0.870606 -0.0130294 -0.491808 -0.781918 0.141954 -0.607003 -0.200351 0.764862 -0.612246 
-0.148868 0.532416 -0.833289 -0.0607563 0.0842685 -0.994589 0.468879 0.311741 -0.82642 
0.616957 0.0331336 -0.786299 0.715083 -0.228746 -0.660553 0.845264 -0.447621 -0.291828 
0.8247 -0.556021 -0.103488 0.922391 -0.345384 0.172929 0.765706 -0.355427 0.536066 
0.561624 -0.544007 0.623406 0.469811 -0.45614 0.755787 0.22607 -0.31558 0.921576 
0.126713 -0.160572 0.978857 0.0204394 0.00800432 0.999759 -0.341778 -0.930411 -0.132378 
-0.129826 -0.90482 0.405519 0.180719 -0.950632 -0.252268 0.129477 -0.411565 -0.902137 
-0.945934 -0.322914 0.0305781 -0.65564 -0.426119 -0.623345 -0.631194 -0.668763 0.392875 
0.357114 -0.870332 0.339103 0.26765 -0.756816 -0.596316 0.0799954 -0.523156 0.848475 
-0.996621 -0.063101 0.0525798 -0.925143 -0.29862 0.234387 -0.0418371 -0.217007 -0.975273 
0.699464 -0.714236 -0.0248311 -0.10576 -0.976208 0.189297 -0.052973 -0.87949 -0.47296 
0.47857 -0.135058 -0.8676 0.215345 -0.787952 0.576851 -0.804797 -0.392825 0.44496 
-0.842697 -0.219564 -0.491583 -0.380497 -0.402879 -0.832412 -0.131427 -0.266542 0.954821 
-0.503912 -0.0543696 0.862042 -0.548156 0.263425 -0.793809 -0.856765 -0.45922 -0.234671 
-0.483883 -0.831194 0.273812 0.575781 -0.67675 -0.458787 0.793179 -0.489282 0.362589 
0.527345 -0.687505 0.499243 -0.193563 -0.0215514 -0.980851 -0.808846 -0.0866656 0.581599 
-0.958834 -0.205321 0.196167 0.126645 -0.385178 0.914111 0.777049 -0.629322 -0.0122084 
-0.531339 -0.670587 -0.517679 -0.692821 -0.701726 0.166071 -0.150682 -0.606537 0.780646 
-0.945616 -0.274698 -0.174217 -0.768545 -0.209861 -0.604398 -0.409739 -0.383912 0.827481 
-0.053315 -0.944929 -0.322904 0.140653 -0.883358 -0.447096 -0.241589 -0.970351 0.00734521 
-0.0363731 -0.939072 0.34179 0.3953 -0.904423 0.160492 0.157696 -0.674392 -0.721337 
0.50881 -0.474925 -0.718024 0.213603 -0.555702 0.803473 0.299551 0.0564912 -0.952406 
-0.986389 0.127846 -0.103399 0.0254237 -0.200732 0.979316 0.575841 -0.771457 -0.27067 
-0.359868 0.0994458 -0.927688 -0.671799 -0.0561427 0.738603 0.395111 -0.692866 0.603179 
0.865241 -0.432953 0.252805 -0.943773 -0.282829 0.171174 0.796581 -0.40837 0.44575 
-0.520515 -0.170304 -0.836696 -0.661287 -0.377103 0.648454 -0.0164582 -0.114323 -0.993307 
-0.927009 -0.226437 0.298965 -0.912021 -0.346026 0.22019 -0.129963 -0.38371 -0.914263 
-0.967449 0.197517 0.158207 -0.401769 0.180347 0.897807 -0.435205 0.592791 -0.67764 
-0.225843 -0.923838 -0.309061 -0.260038 -0.74561 -0.613551 -0.282713 -0.279937 0.917447 
-0.813324 -0.181358 -0.552823 0.715566 -0.676889 0.172588 -0.410991 -0.146896 0.899727 
-0.704614 0.145286 -0.694558 -0.204058 -0.932432 0.298214 -0.535536 -0.58734 -0.606823 
-0.714377 -0.647252 0.265952 0.0363532 -0.815283 0.577921 0.266008 -0.129781 -0.955195 
-0.886219 -0.103821 -0.451484 -0.0842503 -0.137048 0.986975 -0.00750156 -0.899075 -0.437731 
-0.793454 -0.299424 -0.529882 -0.978133 -0.108735 -0.17729 -0.400085 -0.56696 0.720061 
-0.00507782 -0.342819 0.939388 -0.290863 0.539055 -0.790455 -0.498311 0.228174 0.836434 
-0.802642 -0.419244 -0.424264 -0.515894 -0.745813 0.421444 -0.608551 -0.780421 0.143556 
-0.920457 -0.384385 -0.0707693 -0.567832 -0.683047 -0.459362 0.607484 -0.528556 -0.592952 
0.353118 -0.55917 0.750091 0.514564 0.0521839 -0.855863 -0.402375 -0.619363 -0.674154 
-0.0199287 -0.96877 0.247161 0.397819 -0.49403 -0.773094 0.267603 -0.85764 0.439139 
-0.978957 -0.203729 -0.0117065 -0.853394 -0.495311 0.162435 -0.857921 -0.289113 0.424719 
-0.236532 -0.247472 -0.93958 0.0679003 -0.995425 -0.0672184 -0.13081 -0.990143 -0.0500593 
-0.666464 -0.193211 -0.720066 -0.539954 -0.463355 0.702675 -0.722943 -0.679479 -0.125148 
-0.64152 -0.731749 0.230207 -0.589939 -0.616036 -0.521989 -0.132919 -0.94475 0.299632 
-0.0107493 -0.662866 0.74866 0.372286 -0.270155 -0.88793 0.450649 -0.863635 -0.225942 
0.665823 -0.661322 0.345447 0.0143205 -0.872736 -0.487982 0.571452 -0.21879 -0.790932 
-0.471451 -0.745108 -0.471749 -0.212876 -0.97373 -0.0808375 0.662751 -0.613022 0.430076 
-0.253032 -0.151942 0.955452 -0.348055 0.00621961 0.937454 -0.350913 0.299598 0.887187 
-0.439641 0.362523 0.821762 -0.695454 0.164597 0.699466 -0.911491 -0.0819698 0.403069 
-0.957839 0.0260277 0.286124 -0.873096 0.419191 0.248962 -0.885144 0.463002 0.0463607 
-0.925994 0.0879063 -0.367161 -0.829875 0.000519949 -0.557949 -0.679924 0.394203 -0.61831 
-0.307361 0.747675 -0.588652 -0.160831 0.70599 -0.689718 -0.121974 0.272435 -0.954412 
0.0447309 0.0581048 -0.997308 0.354829 0.286563 -0.889932 0.552382 0.214929 -0.805406 
0.664061 -0.136401 -0.735131 0.777963 -0.25974 -0.57211 0.856237 -0.34807 -0.381713 
0.820644 -0.533366 -0.205097 0.870995 -0.490481 0.0282342 0.934303 -0.20326 0.292853 
0.85978 -0.215896 0.462782 0.650534 -0.486496 0.583204 0.507261 -0.524892 0.683502 
0.42598 -0.38446 0.818982 0.297267 -0.332361 0.89508 0.166161 -0.261907 0.950681 
0.0938733 -0.0376367 0.994873 -0.0646033 0.00741283 0.997883 0.744274 -0.480872 -0.463484 
0.742333 -0.559221 -0.369071 0.396565 -0.741811 -0.540789 0.651661 -0.540258 0.532409 
0.534516 -0.633588 0.559338 0.462475 -0.773658 0.433093 -0.186447 0.255699 -0.948607 
-0.131307 -0.00315638 -0.991337 -0.145835 -0.188701 -0.971146 -0.676093 0.134873 0.724367 
-0.832063 -0.0497414 0.552447 -0.895241 -0.250802 0.368297 -0.956074 -0.162942 0.243664 
-0.975994 -0.0111687 0.21751 -0.978864 -0.149426 0.139632 -0.936338 -0.277156 0.215538 
0.172504 -0.365397 0.914728 0.11661 -0.280314 0.952799 0.107379 -0.449303 0.886903 
0.784513 -0.616007 -0.0712354 0.860413 -0.501841 0.0885732 0.739407 -0.672944 -0.0205658 
-0.133576 -0.77666 0.615594 -0.109902 -0.360668 0.926197 -0.308886 -0.783786 0.538767 
-0.951966 -0.294978 -0.0821561 -0.892817 -0.236318 -0.383447 -0.924175 -0.342571 -0.168957 
-0.814457 -0.232265 -0.531707 -0.671683 -0.012535 -0.740732 -0.282704 -0.369618 0.885133 
-0.478756 -0.268828 0.835778 0.0203271 -0.941757 -0.33568 -0.0526855 -0.902394 -0.427679 
0.109829 -0.914043 -0.390464 0.160228 -0.842707 -0.513976 0.339361 -0.815729 -0.468424 
-0.255512 -0.965334 -0.0533187 -0.168477 -0.980849 0.0977262 -0.362469 -0.916462 0.169449 
-0.107342 -0.932754 0.344163 0.0997483 -0.944801 0.312093 0.0861939 -0.894962 0.437738 
0.378143 -0.925743 0.00276332 0.392639 -0.880746 0.264803 0.0675047 -0.990469 0.120062 
0.210008 -0.487734 -0.847356 0.185218 -0.747608 -0.63779 -0.0138732 -0.814028 -0.58066 
0.61321 -0.379224 -0.692937 0.409851 -0.628195 -0.661357 0.504897 -0.329423 -0.797847 
0.29611 -0.44844 0.843339 0.222458 -0.424468 0.87769 0.13782 -0.576241 0.805576 
0.223088 -0.674458 0.703803 0.166638 -0.48433 0.858869 0.236194 0.0935284 -0.967194 
0.395815 0.188662 -0.898742 0.134857 -0.0928896 -0.986502 0.414016 0.0293677 -0.909796 
-0.930536 0.360108 0.0665235 -0.96704 0.216638 -0.133797 -0.995771 0.0916961 -0.00569575 
-0.927728 -0.108558 -0.357122 0.0670415 -0.199545 0.977593 0.0148571 -0.0939022 0.995471 
0.0577998 -0.341141 0.938233 -0.0319875 -0.180504 0.983054 0.0768644 -0.303135 0.949843 
0.709326 -0.645527 -0.283109 0.714504 -0.67544 -0.182385 0.608016 -0.774053 -0.176517 
0.548739 -0.747147 -0.375042 0.671864 -0.725051 -0.151328 0.372798 -0.846351 -0.38041 
-0.363213 -0.164807 -0.917014 -0.443242 0.270033 -0.854762 -0.269433 0.0530738 -0.961555 
-0.751653 -0.243818 0.612838 -0.565214 0.00157906 0.824943 -0.739207 -0.0523023 0.671445 
0.478904 -0.628214 0.613187 0.437212 -0.57628 0.690469 0.312381 -0.741757 0.593477 
0.433126 -0.730634 0.527803 0.900568 -0.280472 0.332133 0.892626 -0.401386 0.205204 
0.807142 -0.575521 0.13152 0.842361 -0.437964 0.314032 0.83268 -0.540152 0.12198 
-0.94604 -0.299847 0.12288 -0.97037 -0.212604 0.114811 -0.931932 -0.295931 0.209588 
-0.948086 -0.258323 0.185477 0.867788 -0.273174 0.415115 0.776004 -0.390373 0.495406 
0.799236 -0.440878 0.40847 0.668539 -0.560608 0.488645 0.857277 -0.365185 0.362927 
-0.596762 -0.327771 -0.732422 -0.448135 -0.291606 -0.845069 -0.532722 0.087411 -0.841764 
-0.437798 -0.00297754 -0.899069 -0.655789 -0.559447 0.506912 -0.733844 -0.375305 0.566233 
-0.578323 -0.189932 0.793391 -0.663007 -0.18159 0.726256 0.0872656 -0.00151179 -0.996184 
-0.0521753 -0.0532304 -0.997218 -0.0335514 -0.16792 -0.98523 -0.120731 -0.135227 -0.983432 
0.130688 -0.0442791 -0.990434 -0.899664 -0.127716 0.417484 -0.938333 -0.174542 0.298441 
-0.926412 -0.273714 0.258539 -0.893333 -0.191841 0.40639 -0.940968 -0.246699 0.231774 
-0.924153 -0.349412 0.154446 -0.921323 -0.315025 0.227865 -0.866264 -0.393804 0.307416 
-0.929623 -0.311599 0.196743 0.00532314 -0.393863 -0.919154 -0.0697713 -0.285965 -0.955697 
-0.289859 -0.433577 -0.853225 -0.907329 0.381072 0.177588 -0.949378 0.218075 0.226109 
-0.993163 0.0624088 0.0986574 -0.985897 -0.0319129 0.16428 -0.970391 0.232534 0.065339 
-0.369753 0.174389 0.912618 -0.386626 0.290446 0.875307 -0.447364 0.0833327 0.890461 
-0.467037 0.615759 -0.6346 -0.300474 0.708295 -0.638775 -0.502045 0.44869 -0.739343 
-0.276882 -0.942781 -0.185742 -0.140392 -0.885856 -0.44221 -0.140179 -0.944196 -0.298068 
-0.0659365 -0.617151 -0.784077 -0.131953 -0.811526 -0.569223 -0.471817 -0.696035 -0.541224 
0.00941764 -0.68891 -0.724786 -0.271451 -0.823119 -0.498788 -0.219796 -0.200208 0.954781 
-0.313283 -0.231165 0.921095 -0.215641 -0.281753 0.934941 -0.344619 -0.336371 0.876409 
[...]
CELL_DATA 8704
POINT_DATA 4354
SCALARS Mean_Curvature double
LOOKUP_TABLE default
5.64825 2.02398 3.43136 1.59578 7.78292 6.31207 1.45232 2.75056 3.03854 
8.45173 2.94672 6.4427 1.15537 4.71363 6.84839 1.78873 4.36983 2.22941 
6.40563 1.53107 1.32568 2.5511 1.17478 2.0095 2.26436 4.42052 4.98033 
2.77379 3.74244 2.93621 4.9014 2.64735 -4.57272 3.17609 0.951865 -3.50542 
-1.42571 2.61232 4.00162 1.89645 5.71614 4.79388 -0.53594 15.4163 5.27734 
4.82299 8.93491 9.88406 0.491392 1.7158 -4.14338 12.5677 2.6605 -3.07568 
-1.61945 -3.16882 -3.86983 4.27233 1.33981 -5.93588 6.10908 4.84171 4.40254 
6.50084 8.51707 10.6066 18.0095 4.85184 -3.3477 -2.43394 4.26839 7.07936 
3.49492 5.02458 -6.96697 4.83496 -4.29584 -0.758458 6.22211 2.27871 3.70216 
0.899346 3.54023 5.41955 -3.00646 -2.41313 3.07945 2.34683 14.1172 1.55512 
-1.68982 -1.09681 12.3709 7.00327 11.7898 1.89512 -0.197515 2.19305 -0.281369 
-6.63826 1.31196 11.636 7.82924 -2.45122 5.358 4.64955 7.87841 4.15742 
2.55683 3.33529 -5.43386 6.98888 5.16971 24.676 7.67268 8.62258 1.84109 
-3.46309 -1.2469 -0.372492 -4.91425 0.858104 3.49885 -7.67615 6.9203 1.65955 
2.47703 3.02208 5.04769 6.9222 0.493197 5.14813 0.30562 1.88828 0.648152 
4.25841 -1.37437 -8.48676 -3.48667 1.98387 -2.89578 20.353 5.74322 32.6175 
0.15921 -7.69069 4.18128 -4.37433 10.6975 9.79001 2.75823 -12.1352 -1.7097 
3.30894 6.31194 5.26108 4.73805 8.63141 2.9024 3.29447 3.56167 4.14598 
5.46463 1.6081 6.89262 4.19406 3.63718 5.32537 1.8077 2.64525 2.49467 
2.19675 1.31316 1.71703 1.79488 3.94263 2.86108 3.63244 3.84567 3.037 
3.10896 2.74814 3.76351 3.60068 4.24398 0.668817 1.10835 2.59773 7.29836 
5.34768 4.65638 7.47602 7.29467 12.824 6.92103 7.47932 6.08745 3.95156 
4.51103 4.85032 15.5446 4.4917 7.25592 6.97802 5.71902 7.60653 7.68854 
-1.23786 -4.60418 -3.36384 -13.2364 3.1895 -7.48992 29.8007 -0.322291 1.97335 
0.305246 5.55836 4.97106 4.2651 4.72452 3.4487 -10.47 0.358233 -0.877737 
7.10628 5.13012 2.51909 -2.64225 -0.0746292 1.65346 -4.78893 4.43184 1.73329 
3.27129 5.42024 5.50176 2.23438 3.21185 4.81814 1.80713 4.78119 6.28211 
0.841603 4.63732 -4.82029 0.0687348 3.78143 -3.73618 6.76778 8.02824 2.86274 
3.99344 -6.36996 8.85419 2.3183 4.57563 7.41802 2.74232 8.7366 5.77782 
-1.2529 -4.0782 -0.927 -3.05723 -2.37305 0.814235 3.65735 3.22134 1.98629 
5.34996 0.85142 5.99697 3.38443 -3.81233 7.64882 4.42994 9.28509 33.6134 
12.527 1.26115 5.71473 -2.99202 4.86963 -2.51402 -0.824061 -0.17472 -4.0289 
-2.57326 0.817028 -2.5211 -1.44655 -2.37118 6.83274 4.33717 13.268 11.339 
10.8241 5.98984 3.35204 10.7203 7.33326 7.04571 2.9408 15.9974 -2.04785 
11.9354 -1.10013 1.0822 7.06204 0.249898 2.72989 -1.19183 2.7179 -2.1486 
6.21269 2.3243 -0.586774 3.98191 0.860673 -2.1791 -3.93584 0.255545 -2.45713 
-1.60568 -3.48433 5.34226 -3.84027 4.01807 8.55869 5.51068 4.08689 9.81759 
3.65178 5.12475 22.1815 12.1728 -0.591 0.0718405 -4.90683 -4.22715 -1.54801 
6.06783 7.81368 0.476953 4.11102 3.29223 7.63436 6.07763 6.65558 0.344113 
4.81712 2.61469 7.87074 4.54047 6.96031 -3.50398 -4.05297 -1.11662 2.94292 
3.26471 9.22517 0.852676 2.56199 -1.33466 8.12207 -0.497893 4.65156 4.4369 
2.11319 3.44126 2.97804 -5.05373 -1.23059 -10.8034 -2.17624 -2.68557 6.88348 
5.02742 12.2029 5.40618 8.06776 7.37142 3.03583 1.00766 -0.190039 9.26298 
5.53229 22.3643 10.5958 7.93868 4.0468 8.2651 -0.809644 11.4167 -4.86472 
8.11965 3.01074 0.975055 4.30839 -1.35296 -1.59926 4.85831 1.18806 -7.88085 
-3.80215 -1.46903 0.0828094 3.49033 -3.80789 1.21852 -2.57906 -1.9303 4.15295 
1.02658 -2.16183 2.39471 -1.64599 -0.711838 5.10303 -4.38586 -5.17321 -3.64543 
4.16338 1.63759 -1.21511 1.27045 -2.431 4.73939 8.89925 -0.904698 -8.80478 
-10.1488 -0.706511 -24.7317 1.59421 -0.0718208 18.1157 0.884083 1.59306 3.04895 
1.12753 3.30599 2.16997 2.47881 1.60466 1.78166 2.04519 1.41851 4.91232 
3.22208 -0.486312 0.935083 6.9414 6.44356 4.01928 2.28317 7.08482 3.14942 
5.97552 5.80469 1.44422 5.30656 -1.41411 0.24633 4.90079 6.05634 2.47815 
6.5452 4.19116 3.55158 0.256901 5.52498 -9.04963 8.60429 1.80711 -4.62958 
-1.41204 3.70702 5.48849 5.79465 -4.17111 5.59931 -2.6065 2.27073 -1.39358 
2.78995 10.0405 2.39718 1.64044 -1.75327 7.93629 0.556223 6.38451 7.40129 
-4.64374 3.09091 -1.24289 -6.31494 -1.72412 -2.95405 -3.52009 0.853605 -3.25089 
0.766569 3.2754 -0.752246 4.07864 -0.0910767 5.16175 -3.94278 -5.73998 2.52346 
8.11232 -5.10259 3.34133 6.88067 7.71418 16.3361 7.78101 5.36237 11.8383 
7.17928 -0.449378 14.5946 7.3024 1.30417 4.67712 13.3248 11.411 10.2757 
18.2282 8.66285 1.68828 2.75183 -1.9186 4.08031 -0.805024 -6.66527 -5.70544 
-3.84243 -9.79181 -3.01638 1.69235 3.2482 5.33687 6.65711 1.01344 -0.811159 
-5.08283 -3.31372 -5.0564 6.87704 8.82006 6.55858 4.04711 15.0807 5.39996 
3.32363 7.14139 8.31542 8.35672 -0.574365 10.6811 -0.640322 6.14696 5.48592 
-9.99447 -3.05684 -20.0723 -6.57751 -10.3979 0.660572 -3.34085 3.8285 -0.768128 
-2.5706 4.38665 4.35092 7.24607 3.40136 8.43673 4.87158 1.88969 4.63733 
2.58596 6.87605 1.1968 5.98722 5.75003 2.47053 6.6476 1.08686 3.56492 
1.66954 2.81402 1.27497 1.4871 1.91117 2.98808 4.00619 2.29635 4.70027 
2.73781 3.41168 2.70894 3.26524 4.27816 3.22299 2.7017 8.04617 3.58376 
6.30221 8.18128 1.43272 4.44667 2.44217 6.05542 3.34799 2.94364 7.13965 
2.79451 5.26415 3.10584 2.93576 1.63514 3.12237 1.61607 1.32649 1.93578 
1.85921 4.61048 1.8005 4.69384 3.11352 3.3806 2.84781 2.8051 4.31618 
2.87937 5.14746 0.854512 0.857937 0.925379 1.48875 1.06102 1.16734 0.794122 
3.97551 1.82463 6.35114 7.23107 5.68402 3.90959 6.78773 4.70333 6.51522 
3.66669 5.88834 7.27154 6.64615 7.61838 4.2133 8.36127 6.39037 8.32882 
12.8323 8.01628 7.68189 5.70757 8.14988 7.6021 6.47595 8.17442 7.30147 
9.37819 4.79337 2.36927 5.58346 3.3603 4.5486 5.14148 4.20765 4.59516 
2.54415 6.41958 21.3842 9.9803 3.51831 5.9804 4.31324 6.05888 7.66762 
5.18711 5.86409 5.92492 7.56367 3.62801 8.13923 4.90928 6.00134 8.76017 
5.90785 7.44596 5.79143 9.14645 0.780324 -2.9407 -4.66491 -4.01686 -0.252855 
-3.87984 -4.93992 -10.2303 7.3031 0.193435 -5.85481 -6.21599 25.0877 13.4545 
-2.36598 2.67891 -0.410568 5.79811 -0.858452 3.01303 2.60865 6.7246 9.56016 
3.07117 2.60757 5.42542 5.4314 4.62282 3.68462 2.26026 4.44855 2.79192 
3.8599 -8.37985 -9.78551 4.47259 -3.29611 5.50832 -5.50903 7.08348 6.02319 
4.63105 5.26623 1.98065 3.43399 -0.475694 -4.19227 1.38168 -1.56437 6.76 
-1.54019 -4.57186 -3.24425 6.16852 1.81165 4.57746 0.410339 2.05349 5.12369 
5.42051 5.84934 2.39349 7.23535 2.36932 2.34019 2.48508 3.30842 2.91911 
2.7927 3.78797 2.53713 5.60066 3.61731 6.04186 1.64959 2.13082 6.25311 
3.56814 4.75619 6.23876 3.71801 4.8058 5.24562 5.96085 3.86166 0.836619 
2.09198 1.9438 3.41836 4.09619 4.99484 -3.78772 -1.42089 0.811999 -0.147897 
1.87196 5.74446 1.96037 3.79338 1.60154 -3.77049 -1.87776 10.7836 3.08442 
6.45242 7.59 5.56044 8.45101 2.39192 4.05172 3.70821 5.77198 4.27531 
4.16488 6.15866 -5.58058 -1.98267 8.84751 7.29883 9.35517 7.91053 9.52354 
6.62502 1.83208 3.72105 2.17218 1.61682 3.44703 5.48118 2.63518 5.18029 
3.2553 5.84909 7.56233 7.56039 1.85972 4.13619 1.60506 3.0751 2.46144 
9.64517 7.59265 7.53458 8.75517 6.56763 8.30943 5.36418 6.05583 4.40408 
4.36104 0.473524 -2.40008 -4.6222 -3.36878 1.823 -2.39611 -3.62756 -2.64037 
-1.89422 -2.58898 2.72236 -0.986521 3.34741 3.45185 3.35971 4.39264 3.45153 
3.0126 3.34702 3.34215 1.74805 2.38106 6.70525 3.87347 5.67258 4.4049 
0.927362 1.4394 2.05117 5.74107 4.68129 4.07496 7.61311 3.25198 3.53769 
3.10537 5.64396 -5.19489 -1.28023 9.33548 5.12801 8.9431 7.69757 7.36087 
5.49509 1.32131 8.39842 4.58373 12.1177 6.56181 31.1478 20.1754 27.7558 
8.87564 15.569 8.07071 15.2359 10.8051 21.8024 1.22991 1.4866 2.65326 
0.0823345 5.86506 4.19759 4.59571 6.95177 3.44262 -4.70083 -0.881684 -4.13231 
6.60314 3.1956 6.85951 5.85956 -1.11925 -1.28009 -0.693925 -2.97275 -0.645437 
-2.85117 0.220978 -1.38527 0.918677 -0.999954 -0.679731 -4.29703 -3.12067 -4.15172 
-2.847 -2.22223 -1.95053 -3.474 -1.46534 -3.34878 2.47186 -0.373669 -3.39944 
-1.7865 -3.085 -1.60116 -1.2767 -1.88477 -2.64722 -1.82474 -2.79642 -2.2736 
-2.44322 -1.82845 4.94695 8.95007 4.01702 7.60456 2.62333 7.47791 2.78636 
5.44524 5.72502 9.5491 14.0246 15.2762 8.68839 8.29347 11.9417 8.55186 
12.7631 7.77663 14.9843 7.90924 12.2015 8.94682 8.57133 10.2947 11.9918 
6.16775 6.06946 4.70365 7.3875 2.10847 4.96991 2.92474 3.31062 4.75375 
13.4331 8.54331 8.90353 13.8433 6.70847 7.06809 7.28305 6.88324 7.39049 
8.43613 6.95231 7.05409 5.08663 10.1105 4.69105 9.51081 0.278896 8.5538 
3.26578 17.6046 13.8963 28.3057 -4.41927 5.07557 12.0955 13.0776 6.8233 
21.1618 6.74172 19.3448 -2.16616 0.169009 2.19587 1.25078 5.18991 5.69909 
0.980207 -0.174139 1.71842 -0.358892 4.05897 1.24143 3.01229 3.66524 1.28438 
-1.19634 -0.809727 1.37107 -3.15097 4.53325 1.1302 3.90925 3.43406 2.54054 
1.03986 -1.52335 -1.43503 -1.23497 -2.89447 -1.19691 -2.43069 7.84859 4.06934 
6.00762 2.43714 2.11773 3.78252 4.09545 -1.26916 0.517363 5.54029 2.18626 
4.07936 1.37774 0.556531 2.39938 2.21816 -3.07846 -1.03342 -3.60145 -5.21091 
8.20798 -6.32979 3.27201 0.0683926 -5.4777 0.684415 -2.23253 -2.41127 -0.694002 
-4.04032 4.85334 -2.27428 -0.197423 4.26745 9.01997 3.79437 -2.22334 -3.2507 
-4.08267 -1.56615 -3.57381 -4.02489 -4.91494 4.66804 -2.70929 1.31296 6.85667 
9.8664 5.62214 3.88094 8.29364 4.34204 7.05102 -0.146404 8.94335 2.45435 
8.74662 10.4624 5.97711 6.99985 2.51548 5.37337 2.46237 4.63367 6.0803 
3.31386 4.11021 22.634 12.4845 32.8839 9.86908 11.0459 19.5758 18.2949 
0.179395 -1.58545 -1.51414 1.89409 -1.38878 1.36646 -5.51638 -3.7718 -4.63037 
-4.19972 -3.51937 -3.52398 -2.58185 0.0736887 -2.36574 0.76982 -2.57527 -0.641599 
-3.59917 4.58557 6.39791 6.28746 5.32995 8.6948 6.38052 7.767 7.18114 
7.08622 -0.807083 2.48105 -0.062863 -0.00968328 5.41 4.03259 1.68466 7.91896 
1.64622 2.56835 3.95504 5.08244 1.24279 5.69352 1.81668 9.47303 6.20803 
6.92873 9.40748 6.4926 6.59005 6.52111 5.33246 6.78118 5.10125 5.88645 
6.56785 6.78711 6.17206 6.59517 -1.88201 2.72333 -0.284579 -1.09483 5.16993 
4.72651 2.07037 7.95905 2.27957 1.44996 3.71367 3.38273 0.078179 4.51092 
1.3638 8.33448 6.60944 6.83565 9.18551 6.98082 7.03698 4.21056 5.87105 
0.240339 7.40488 9.09368 3.2139 1.76911 2.91669 -5.0485 1.54832 -4.31608 
0.266004 -2.79739 -5.25526 -0.261749 -6.03052 -4.62551 5.81166 -0.277408 -5.69464 
3.4539 0.437236 2.77887 3.35169 0.928142 2.95837 3.63246 1.36314 13.4584 
6.42889 -0.518669 2.38532 0.0384278 0.32176 1.59052 1.81296 3.37172 2.23939 
1.45659 -3.31687 0.75876 -2.36789 7.03636 5.80519 -0.990051 0.600307 0.045553 
-1.61166 0.845324 -0.93606 4.75805 4.1977 5.41027 4.78001 3.92334 4.81197 
1.76811 2.73836 2.12058 1.89263 4.13092 3.21871 4.91444 2.7958 4.17548 
2.57869 2.76458 3.26913 3.8226 2.24451 3.98905 2.41122 -4.13562 -5.74728 
-3.02865 1.28856 -3.32644 1.16229 -0.863622 -6.56648 -9.28922 -7.98391 1.06165 
-4.8208 1.60516 -4.41792 -1.5816 -7.53051 -0.805993 -4.1279 -2.01579 -1.32119 
-3.80818 -2.63518 6.96398 6.90058 6.69415 5.86026 3.35629 6.74119 5.22147 
4.08631 6.71788 15.182 9.4972 9.38981 16.0553 3.3284 6.59294 4.2552 
5.5538 6.2538 7.83874 7.85611 8.12195 5.32859 12.0069 5.98379 10.7988 
6.63286 7.12376 5.55808 8.57645 2.66231 3.9874 3.75047 1.84123 5.07499 
-1.63905 3.67825 -3.33606 2.81695 0.68671 1.73883 1.3397 -3.3025 1.48231 
-0.37841 10.318 7.42192 10.1855 7.34921 9.1868 5.88731 2.73573 10.9633 
5.35749 4.46702 14.224 32.3627 12.4021 6.2859 18.0229 8.15221 7.71211 
9.87096 18.1089 6.10452 12.2776 5.96078 7.42678 3.01866 7.17392 11.3178 
6.32663 4.31212 19.8426 -1.49345 1.15392 0.782346 2.09395 7.77616 13.809 
18.2826 14.9492 -3.73585 -0.165652 -4.15671 9.78391 7.39033 6.35795 8.21328 
-0.667939 7.81125 3.00622 6.37092 0.26495 3.37717 -2.0525 4.17657 -1.62821 
6.2033 4.79475 3.15147 -2.84853 0.213786 -2.97015 -0.0582238 -2.91226 -0.0628342 
-2.92015 -1.36304 6.53133 3.14356 3.32256 1.53373 3.19006 -0.780885 2.1672 
-6.02278 -5.69219 -6.34058 -7.90737 -3.87074 -3.57226 -4.97393 -5.70465 0.975173 
-2.76543 1.64194 -4.50614 -0.0621946 -5.73359 1.02373 -0.674867 1.85704 -0.0128713 
5.70831 0.911202 3.69676 5.5404 1.36856 -4.21787 -2.86067 -4.14593 -3.39869 
2.9192 -0.0623203 4.5261 -0.0951854 2.65176 -2.96593 -1.98703 -3.56021 -1.91259 
-3.37148 -1.04449 -0.859082 -2.06549 -0.75706 -2.38458 -1.18088 -3.04282 6.34344 
1.68906 4.45607 5.83079 1.89085 0.201257 2.71516 1.08821 2.21842 -1.88534 
-1.792 -2.31941 -1.47273 3.74676 0.810394 4.77856 1.52263 3.36799 -1.95776 
-1.19056 -2.43602 -0.512904 -2.24005 0.0950805 0.190574 -0.919201 0.617808 -0.729053 
-0.0877736 -1.64553 7.09326 -2.3835 5.45237 -3.97615 -5.06479 -5.65419 -4.2443 
-6.44723 -5.6958 -3.11842 -5.68717 1.23088 -5.36552 1.34761 -2.65591 -2.20614 
-4.7775 4.8628 2.68441 4.03068 2.53177 1.35298 -0.87103 -2.91831 0.198427 
-2.46985 -1.47755 -0.680599 1.45101 1.18972 2.68938 -0.129551 2.47746 -0.196397 
-6.02066 1.24867 -5.08536 6.34356 3.38879 3.31957 6.88995 6.94398 -5.19402 
1.26918 -4.35031 -1.02903 -1.14267 1.7809 -5.1408 -10.1347 -10.3621 -6.43553 
-11.3268 -9.29614 1.90666 -3.64731 -10.8037 -18.1841 -19.8533 -12.3881 -17.8608 
-16.7751 -2.26234 6.39149 -2.23968 3.18456 31.4501 9.99508 0.967851 1.06217 
1.11133 0.69201 1.5517 1.48266 1.33006 2.22181 1.18778 4.37371 2.07461 
2.71212 4.37238 1.17111 1.23894 0.7456 1.69753 0.816195 1.79855 4.82645 
2.21214 3.34573 4.55028 2.24835 3.14596 2.37656 1.98034 2.47327 2.01908 
3.06266 2.06128 2.81803 2.78978 2.26532 1.60601 1.68006 1.59765 1.68999 
2.02823 1.73005 1.93793 1.77397 1.83594 1.62564 2.33556 1.8925 2.51558 
1.96182 2.28589 1.74364 1.04858 2.65645 2.05364 0.244798 4.07548 5.22635 
3.40634 3.12716 1.07977 4.03617 -1.05668 0.254655 1.78828 -0.199089 -2.23039 
0.143783 0.613965 -1.14964 2.88735 -0.0353052 -0.207005 5.24062 6.56687 6.82523 
5.33743 9.33514 5.44409 5.34804 8.72277 3.20578 4.58891 1.28557 6.00706 
2.20496 6.31532 1.78818 3.27503 0.726715 3.37905 1.66574 3.94084 5.73434 
6.78575 5.48718 7.51291 6.96892 7.22172 2.99704 3.42144 4.43551 1.73664 
7.96988 4.61301 4.32191 5.76225 4.91557 5.29484 4.55974 -1.07287 3.32829 
0.403783 1.01329 2.11431 2.95618 6.28436 3.07843 4.66164 5.6374 -1.68939 
-0.545035 1.84154 0.0566572 0.560414 2.0598 2.47966 6.44283 2.77009 5.86731 
5.02555 4.7685 2.13922 5.1141 5.76964 5.55659 5.31089 1.91547 3.43841 
2.35765 2.15142 6.9005 5.64191 6.38038 6.21849 6.38206 4.2602 4.39068 
5.03487 3.13666 5.22156 3.17076 3.141 4.14164 2.5435 4.50826 2.89639 
5.22212 -0.574397 1.24563 -5.49976 2.61849 1.62887 7.98928 7.78632 -1.06348 
-4.95267 -7.06791 -10.9881 -1.17335 -6.34164 10.2587 6.97611 6.33275 10.5827 
4.52543 9.55367 5.27062 1.02332 -1.02332 4.03492 2.41095 -2.70362 -2.8762 
-4.71568 -0.845859 -5.95065 -4.38802 5.51045 -3.87153 -1.74939 4.0882 3.29869 
6.44118 0.995076 10.0223 0.65984 4.04594 2.70636 -1.80135 1.77529 3.77114 
7.03482 1.47545 6.82761 3.32045 6.6233 -5.51788 -2.62725 -6.89042 -2.06127 
-5.8524 -0.255462 10.2486 2.40736 5.49525 8.8211 -3.78845 -1.13586 -3.05967 
-2.84842 3.54 1.05946 3.89645 1.4441 3.02937 -1.86261 -0.683936 -2.44688 
-0.470712 -2.02462 0.31134 7.15779 0.972665 7.74991 0.439257 4.01905 -0.926529 
8.02783 7.11685 11.7651 5.50954 2.50563 2.4575 0.0616793 5.35916 2.83773 
1.8117 6.66645 0.015014 6.92318 -2.40659 -0.32415 -1.62452 -1.78973 -0.256123 
-0.691941 5.19455 6.85193 4.85824 7.23629 8.47812 5.8737 0.916565 -0.106074 
3.16207 -1.46999 8.80816 -0.825467 3.76164 5.45368 6.46285 6.39553 4.40146 
-3.80592 -4.818 -4.02742 -2.09695 -3.08002 -2.21077 7.23081 -3.45354 1.46265 
7.7531 1.3728 -6.17371 3.15024 -5.87048 -7.71399 -2.35636 -2.30355 3.06039 
-7.05112 4.17583 5.03411 0.20847 -1.61337 -0.81107 -3.51713 -1.81056 -1.75554 
-3.67274 -3.38159 -2.43235 -3.94974 3.48431 -1.67449 -0.313339 3.85187 -2.25316 
-2.5599 -3.75141 -2.16294 -3.53532 -3.02315 -3.64621 10.3466 -2.78466 2.02806 
6.1449 -3.04153 0.37397 3.75655 2.74339 1.89034 4.59366 -1.38135 0.527009 
-0.433935 -1.16631 5.53501 2.94722 1.66935 6.12307 0.868433 -0.689077 0.790977 
0.328656 -0.918248 1.34165 -0.44605 3.79029 4.4195 4.61479 5.25763 4.49879 
5.16874 -5.14149 2.4904 -4.08225 -1.04797 -4.52087 -6.65395 -7.44501 -2.51463 
3.43675 0.886263 6.42874 0.457916 5.18935 6.75076 1.83642 8.36515 3.58078 
6.79731 -6.00828 -4.58934 -8.36429 -2.44705 -7.33257 -1.40798 5.89724 -3.49949 
5.98772 0.743784 4.07464 -3.30123 5.18105 10.4562 4.77138 5.64846 5.89753 
12.6427 4.05552 7.48536 8.71184 28.5461 10.6066 11.6851 4.66278 14.015 
4.35577 8.39744 7.43895 14.0892 2.8364 9.86168 4.45595 3.13098 7.01494 
6.34081 5.95674 24.8205 6.56591 10.5635 11.5958 21.4068 5.97356 6.80269 
5.1639 7.23414 -2.38262 2.24221 -2.32584 -0.394846 24.1288 8.78911 12.986 
20.4749 5.35976 8.158 4.95914 8.1227 6.96378 10.171 -2.11533 3.66389 
2.80424 -2.29898 5.48329 0.204278 5.55981 4.89628 2.00127 9.90037 1.74904 
9.24399 7.26981 26.1444 10.1321 8.33944 9.30615 17.1676 10.2424 9.01336 
6.85219 17.2079 9.43397 7.64287 15.7342 12.2072 28.9348 10.6232 12.2531 
18.7648 17.1393 5.80191 14.6183 7.17804 7.04769 10.8108 10.4253 2.63257 
1.09141 0.226177 3.71343 3.71797 1.93574 4.07165 1.85231 -3.05043 -0.614484 
-1.71188 -2.78422 -0.20379 4.29604 2.73551 4.12045 4.17532 3.13685 3.3699 
-1.79152 0.0834431 0.0360787 -2.31135 0.958772 -1.36862 -5.1917 -7.20979 -5.80694 
-6.2436 -3.87181 -6.6409 -8.07756 -3.16442 -2.34192 -5.3992 -4.4427 -1.87311 
-5.8778 -8.62035 -8.72135 -7.37066 -10.3708 -8.10682 -8.89992 -1.18562 -4.86201 
-2.33381 -1.66438 -4.30584 -3.34293 1.31322 2.36551 2.8145 0.583314 3.55502 
3.16973 5.50397 1.70239 5.65742 4.42135 4.48586 5.86112 3.39405 7.05585 
5.01703 7.06905 6.51329 5.21501 5.84094 -0.496791 2.27683 -0.148941 0.287281 
1.07446 1.65643 0.993909 -2.52687 -0.324856 -5.39402 -4.5734 -5.67556 -3.2824 
-3.45695 -1.79301 -4.64473 -2.01659 -4.0435 -5.05846 -5.17051 -4.86235 -5.45657 
-4.89685 6.28165 7.4814 6.02349 6.37048 9.03075 8.9158 4.93638 14.9493 
5.56331 7.86068 5.53393 7.29016 6.8477 1.61755 6.71261 4.22989 2.973 
6.51156 5.76922 22.1997 10.7505 23.4026 11.4901 13.3938 9.39968 4.00783 
6.98429 3.40084 5.56103 1.92236 6.25231 2.60372 3.30134 4.49011 3.10573 
9.49267 6.40002 6.09148 7.36862 8.90354 5.44983 8.31299 5.72159 9.25877 
6.61836 9.06495 6.67116 7.25096 7.34559 8.9212 -2.12148 0.784933 -2.09353 
-0.349374 17.0051 5.87496 8.59472 17.057 -3.90808 1.37034 -2.63637 0.99558 
-0.828472 5.06154 4.50444 6.18716 6.22139 7.23043 3.56785 7.41124 3.73309 
3.16309 10.6034 1.27253 7.88486 -6.42015 -13.7079 -14.6808 -5.80111 -0.30796 
-6.1193 -2.50303 -2.1283 -10.8563 -21.3214 -20.0378 -10.8099 -25.2464 -6.4754 
-7.59549 -6.19254 -4.94031 -8.20598 -4.93091 -10.0302 -10.6899 -5.88671 -11.0329 
-5.73578 -15.2409 1.64913 0.00620422 2.60376 0.00281148 -4.60507 -2.0239 -3.21069 
-4.35989 5.56082 1.60317 3.81878 3.91045 1.6887 0.175367 -1.36113 -1.36005 
2.17694 -1.90311 1.47705 -3.22585 -1.76713 -1.68924 -3.90288 -1.02909 -3.10535 
8.63142 6.9183 10.7257 7.54462 7.33761 10.2713 4.83391 6.4325 4.49448 
5.71883 5.71426 4.76457 5.41563 4.02317 4.69896 5.10377 3.6638 10.2107 
7.05805 7.14777 9.11587 6.08993 5.53791 6.01986 5.50015 10.7717 5.69121 
8.00497 5.81779 8.88313 7.41916 4.81755 9.08858 4.43669 7.15893 7.48319 
6.31003 23.2843 8.33049 19.2212 15.4154 8.87557 3.38262 2.66783 5.97954 
1.60884 7.46982 19.0206 13.839 8.3124 -4.21115 -0.413469 -5.5615 -1.74551 
-1.92487 -4.3397 0.288207 -4.50453 -0.954352 -5.53723 -1.94555 -4.0742 2.12221 
3.93844 4.1747 0.73398 5.87877 -7.5944 -7.04463 -3.08238 -10.6287 0.933505 
3.15841 0.385019 2.94736 2.48256 2.0173 2.78533 2.2507 2.02112 2.56133 
2.39234 1.1472 2.75842 1.21692 1.74085 2.2988 3.17731 3.23133 2.15942 
3.7971 1.43928 0.812883 1.35497 1.23818 1.0411 2.20862 1.84355 1.73981 